ITEM: TIMESTEP
146400000
ITEM: NUMBER OF ATOMS
23040
ITEM: BOX BOUNDS
0 178.617
0 178.617
0 178.617
ITEM: ATOMS id type xs ys zs
2383 2 0.00701713 0.00583871 0
1821 1 0.000703239 0.00355146 0
555 1 0.014272 0.00509909 0
255 1 0.0241487 0.00399439 0
4156 2 0.0312355 0.00392437 0
1460 1 0.0371756 0.0019862 0
2471 2 0.0392211 0.00769415 0
39 1 0.0435558 0.00322229 0
480 1 0.0524558 0.00387894 0
4564 2 0.0478647 0.00783194 0
3363 2 0.0615198 0.00465897 0
2431 2 0.0690588 0.000952488 0
2756 2 0.0766116 0.00201918 0
16 1 0.0734168 0.00679609 0
1775 1 0.0834427 0.00389599 0
1196 1 0.0934445 0.00674236 0
4836 2 0.0894881 0.00157913 0
1875 2 0.0980694 0.00255424 0
1679 1 0.102799 0.00611888 0
1844 2 0.109323 0.00764552 0
2435 2 0.10635 0.000773766 0
595 1 0.112808 0.00235964 0
3388 2 0.116839 0.00753742 0
3535 2 0.118959 0.000261843 0
5580 2 0.1239 0.0053928 0
1099 1 0.129371 0.00308346 0
3440 2 0.135127 0.00546217 0
1032 1 0.139706 0.00163815 0
1920 2 0.143444 0.00639461 0
4496 2 0.151366 0.0056485 0
1684 1 0.157834 0.00715955 0
5576 2 0.158152 0.00129037 0
5132 2 0.163816 0.00670701 0
1807 1 0.164766 0.000600683 0
4531 2 0.170613 0.00279859 0
1743 1 0.176618 0.00147897 0
5160 2 0.177261 0.00740187 0
2584 2 0.18264 0.00187645 0
823 1 0.183335 0.00774271 0
2704 2 0.189613 0.00575752 0
276 1 0.196574 0.00665264 0
3938 2 0.194313 0.000427277 0
3481 2 0.201355 0.00297339 0
2768 2 0.208744 0.00732751 0
1362 1 0.206763 0.000980448 0
3853 2 0.212768 0.000200028 0
4822 2 0.220164 0.00210039 0
750 1 0.214702 0.00654856 0
478 1 0.22565 0.00500617 0
5337 2 0.231357 0.0030224 0
3445 2 0.239012 0.00191976 0
1518 1 0.244917 0.00182778 0
12854 1 0.24925 0.00482469 0
16561 2 0.255614 0.00482659 0
12698 1 0.26154 0.00234913 0
16106 2 0.268177 0.0028184 0
16390 2 0.276415 0.00534744 0
15142 2 0.28531 0.00292167 0
13801 2 0.292908 0.00180926 0
15090 2 0.297978 0.0074654 0
15806 2 0.305482 0.00645671 0
11686 1 0.309593 0.00240062 0
13481 2 0.313989 0.00744223 0
11725 1 0.319551 0.00484846 0
13838 2 0.325428 0.0027968 0
14134 2 0.332468 0.00569189 0
14298 2 0.340117 0.00708909 0
11582 1 0.343898 0.00157224 0
16058 2 0.348984 0.00495941 0
12566 1 0.354233 0.00160236 0
14122 2 0.360552 0.00130508 0
12562 1 0.364035 0.00599526 0
13466 2 0.369843 0.00663142 0
16494 2 0.3756 0.001887 0
13293 1 0.381328 0.0011092 0
15125 2 0.382179 0.00696585 0
15380 2 0.38719 0.000884439 0
13438 2 0.394556 0.00226223 0
14993 2 0.402191 0.00301834 0
17121 2 0.40939 0.00390374 0
13226 1 0.415316 0.00117751 0
16585 2 0.417963 0.00786313 0
14925 2 0.421611 0.00162772 0
14765 2 0.426399 0.00707694 0
14246 2 0.430335 0.00110167 0
13600 2 0.437315 0.00415852 0
12570 1 0.442025 2.26989e-05 0
17069 2 0.444425 0.00687967 0
13457 2 0.449535 0.00164299 0
13610 2 0.45686 0.0039107 0
12446 1 0.46298 0.0064011 0
16409 2 0.468122 0.00358835 0
14453 2 0.477075 0.00636798 0
12327 1 0.483263 0.00596927 0
13691 2 0.488846 0.00366045 0
13721 2 0.495361 0.00753548 0
13341 1 0.494456 0.00108715 0
418 1 0.00661299 0.0116087 0
2011 2 0.0126859 0.0114567 0
4935 2 0.0197281 0.00806953 0
1272 1 0.0186098 0.01384 0
1963 2 0.0268906 0.00960781 0
3968 2 0.0313465 0.0153286 0
464 1 0.033626 0.00934615 0
5735 2 0.0387638 0.015608 0
1592 1 0.0435396 0.0119715 0
4599 2 0.0499815 0.0154101 0
3592 2 0.0556703 0.00933387 0
1187 1 0.0622587 0.0118592 0
2295 2 0.0676259 0.00879682 0
2524 2 0.0733556 0.0139999 0
5703 2 0.0792647 0.0088162 0
752 1 0.0815204 0.0143185 0
2207 2 0.0870955 0.0096172 0
1311 1 0.0922611 0.0125173 0
5376 2 0.098121 0.0114726 0
395 1 0.104224 0.0121721 0
2536 2 0.110375 0.0147743 0
1208 1 0.116785 0.0138438 0
4888 2 0.122552 0.0129897 0
2559 2 0.129416 0.0102412 0
3060 2 0.13475 0.0152488 0
875 1 0.138337 0.0102239 0
3335 2 0.142781 0.0149067 0
1436 1 0.14777 0.0110097 0
3595 2 0.154455 0.0125499 0
172 1 0.160373 0.0120334 0
4476 2 0.166534 0.013636 0
912 1 0.170742 0.00915226 0
5288 2 0.174076 0.0144336 0
390 1 0.180485 0.0128022 0
5268 2 0.186675 0.0133788 0
2650 2 0.194058 0.0118092 0
2754 2 0.202175 0.0106717 0
3586 2 0.214075 0.0127154 0
4750 2 0.221192 0.00935316 0
3753 2 0.228823 0.010234 0
144 1 0.226656 0.0160285 0
4708 2 0.236168 0.00983243 0
16753 2 0.243789 0.00825716 0
635 1 0.238727 0.0150478 0
16420 2 0.25073 0.0108523 0
12925 1 0.257483 0.0111066 0
16082 2 0.262726 0.00859525 0
13057 1 0.266593 0.014365 0
17248 2 0.270526 0.00985233 0
12873 1 0.276382 0.0131285 0
13402 2 0.282492 0.0100286 0
15310 2 0.290297 0.00901936 0
13782 2 0.287106 0.0159199 0
14234 2 0.295676 0.0149551 0
11750 1 0.302448 0.0120434 0
15561 2 0.308919 0.0135041 0
11733 1 0.315672 0.0134035 0
16253 2 0.321146 0.0109311 0
13102 1 0.326913 0.00939304 0
16002 2 0.326456 0.0159443 0
13858 2 0.333595 0.0130746 0
13175 1 0.339711 0.013648 0
14349 2 0.346083 0.0126727 0
12354 1 0.352279 0.0117647 0
16574 2 0.357014 0.0157451 0
13953 2 0.357371 0.00840493 0
13526 2 0.364538 0.0122013 0
16650 2 0.372023 0.0143302 0
11842 1 0.376209 0.0081947 0
15882 2 0.379596 0.0145767 0
12300 1 0.385263 0.0125625 0
13558 2 0.38983 0.00865716 0
16898 2 0.39309 0.015574 0
15129 2 0.397468 0.00887509 0
12449 1 0.399272 0.014691 0
11953 1 0.404665 0.00895532 0
15965 2 0.40468 0.0155208 0
14077 2 0.410663 0.0111515 0
14502 2 0.415912 0.0159479 0
15074 2 0.423203 0.0140798 0
16313 2 0.430702 0.0148114 0
12735 1 0.433101 0.00850107 0
16749 2 0.437862 0.0126329 0
11974 1 0.444472 0.0128637 0
15342 2 0.451733 0.00998275 0
16597 2 0.459275 0.0112936 0
15462 2 0.466593 0.0115264 0
13271 1 0.471889 0.0090331 0
16484 2 0.474842 0.0149177 0
17060 2 0.481854 0.0122072 0
16333 2 0.488961 0.011141 0
12718 1 0.494126 0.0141891 0
17210 2 0.499994 0.0137763 0
5297 2 0.00356869 0.0165552 0
2892 2 0.00702955 0.0229277 0
8 1 0.00968162 0.0173 0
4676 2 0.015289 0.0195142 0
2656 2 0.0236767 0.0169833 0
3792 2 0.0216778 0.024162 0
3512 2 0.0283735 0.0222337 0
704 1 0.0348073 0.0203849 0
747 1 0.0440517 0.0184062 0
1588 1 0.0539519 0.0217138 0
1900 2 0.0484256 0.0228899 0
5320 2 0.0575406 0.0164192 0
5199 2 0.0606427 0.0234868 0
2359 2 0.0658929 0.0168953 0
292 1 0.0670259 0.0231848 0
1165 1 0.072118 0.0200279 0
4056 2 0.0785237 0.0199271 0
152 1 0.0844308 0.0231117 0
1904 2 0.0871863 0.0177665 0
2716 2 0.0947673 0.0181373 0
899 1 0.0978376 0.022889 0
2980 2 0.102673 0.0184405 0
5627 2 0.109386 0.0223245 0
5651 2 0.11678 0.0201129 0
4872 2 0.124218 0.0217056 0
828 1 0.128421 0.0168282 0
4452 2 0.132252 0.0224009 0
232 1 0.139019 0.0200628 0
1108 1 0.148516 0.0167401 0
1996 2 0.145371 0.0218687 0
2111 2 0.153039 0.0209863 0
3500 2 0.160128 0.0184778 0
778 1 0.162954 0.0239884 0
4046 2 0.168367 0.0204612 0
324 1 0.174477 0.0207765 0
2548 2 0.180548 0.0191095 0
1143 1 0.186235 0.0201998 0
2591 2 0.191864 0.0196359 0
5087 2 0.199198 0.017438 0
210 1 0.204785 0.022077 0
2791 2 0.207488 0.0165058 0
5748 2 0.210563 0.0239958 0
856 1 0.214859 0.0187491 0
2322 2 0.220472 0.0166701 0
4426 2 0.225676 0.022549 0
5354 2 0.232498 0.0169583 0
1527 1 0.232514 0.0234603 0
4739 2 0.23895 0.021431 0
4410 2 0.245164 0.0162282 0
514 1 0.245729 0.0223938 0
4689 2 0.252547 0.0178533 0
14410 2 0.260226 0.0162296 0
14458 2 0.265602 0.022188 0
15145 2 0.271968 0.0176862 0
13178 1 0.274225 0.0230603 0
15522 2 0.279805 0.0186801 0
11901 1 0.284977 0.0227891 0
14018 2 0.291774 0.0216335 0
12790 1 0.298128 0.0218004 0
16949 2 0.302583 0.0180154 0
13158 1 0.308109 0.0210823 0
15961 2 0.313903 0.0191368 0
11674 1 0.320048 0.018059 0
13202 1 0.324663 0.021723 0
15025 2 0.331024 0.0216351 0
11870 1 0.336357 0.0182304 0
13654 2 0.3427 0.0194318 0
16282 2 0.35031 0.0192974 0
14282 2 0.356486 0.0235501 0
17270 2 0.363334 0.0202089 0
11638 1 0.369183 0.0204996 0
14294 2 0.375545 0.0211629 0
12417 1 0.381482 0.0226882 0
14286 2 0.385894 0.0189171 0
12061 1 0.391466 0.0215718 0
15218 2 0.398422 0.0209343 0
13785 2 0.406701 0.0226041 0
13040 1 0.410464 0.0182049 0
13448 2 0.413916 0.0233847 0
12649 1 0.420818 0.0200116 0
13450 2 0.427209 0.0210951 0
14109 2 0.435054 0.0206531 0
14086 2 0.442555 0.0186833 0
13398 2 0.4502 0.0170995 0
12433 1 0.456123 0.0163543 0
14814 2 0.455571 0.0224711 0
16294 2 0.46291 0.0180974 0
12517 1 0.468797 0.0168046 0
17152 2 0.469688 0.0227937 0
13573 2 0.477442 0.022184 0
11757 1 0.48206 0.0185967 0
14428 2 0.488661 0.0183225 0
13607 2 0.495486 0.0206026 0
1134 1 0.00242985 0.0283287 0
3432 2 0.00793577 0.0309132 0
2788 2 0.0138918 0.0264117 0
864 1 0.0202558 0.0305546 0
5383 2 0.0265619 0.0296925 0
5072 2 0.0342972 0.0263331 0
2564 2 0.0411419 0.0243607 0
1660 1 0.040176 0.0302568 0
4012 2 0.0473221 0.0309896 0
1851 2 0.0544559 0.0284208 0
1372 1 0.059823 0.0296206 0
2800 2 0.0663896 0.0299222 0
1956 2 0.0729307 0.025948 0
156 1 0.0793515 0.026148 0
3676 2 0.0779008 0.0318734 0
5719 2 0.0849014 0.0290599 0
4464 2 0.0905934 0.0246202 0
5724 2 0.0964937 0.0290566 0
3828 2 0.10314 0.0258226 0
4771 2 0.109969 0.0300907 0
1048 1 0.114554 0.0258593 0
2159 2 0.119759 0.0281017 0
4848 2 0.127718 0.0281999 0
736 1 0.133658 0.028923 0
3407 2 0.138683 0.026103 0
2648 2 0.145518 0.0292903 0
116 1 0.151596 0.0266724 0
4552 2 0.157758 0.0268553 0
3352 2 0.166115 0.0291257 0
892 1 0.171227 0.025852 0
1884 2 0.177494 0.0261517 0
2906 2 0.18537 0.0261746 0
282 1 0.185735 0.0320324 0
450 1 0.191795 0.0255548 0
2008 2 0.197952 0.0258074 0
4295 2 0.192104 0.0318265 0
3824 2 0.204719 0.0289248 0
124 1 0.19845 0.032108 0
1278 1 0.212413 0.029257 0
3378 2 0.218326 0.024475 0
3475 2 0.217921 0.0321914 0
1066 1 0.222695 0.0286093 0
4962 2 0.229125 0.028898 0
2334 2 0.236275 0.0287894 0
4086 2 0.243821 0.0280772 0
14570 2 0.250665 0.0253701 0
17227 2 0.258306 0.0243226 0
16062 2 0.256306 0.0315368 0
14610 2 0.264197 0.0295458 0
16350 2 0.271251 0.0282059 0
17182 2 0.279984 0.0266671 0
14498 2 0.287654 0.0284208 0
15790 2 0.296124 0.027584 0
17094 2 0.303387 0.0256467 0
12538 1 0.307147 0.0306084 0
16277 2 0.31218 0.0270572 0
15742 2 0.319139 0.0244042 0
15934 2 0.325586 0.0284985 0
12065 1 0.331946 0.0280328 0
15914 2 0.337739 0.0258408 0
15258 2 0.345581 0.0263032 0
12494 1 0.35135 0.026599 0
16042 2 0.355927 0.0309191 0
15230 2 0.362851 0.0281629 0
14870 2 0.369942 0.0264746 0
12406 1 0.373245 0.031457 0
16678 2 0.377953 0.0283174 0
15938 2 0.3855 0.0270282 0
14026 2 0.39362 0.0272824 0
13796 2 0.402022 0.0281325 0
16478 2 0.409901 0.0298115 0
12138 1 0.416456 0.0292589 0
15994 2 0.421728 0.0261058 0
12513 1 0.427033 0.0292535 0
16226 2 0.433068 0.0274067 0
13538 2 0.440626 0.025898 0
11630 1 0.438535 0.0321212 0
15447 2 0.448232 0.0245821 0
14172 2 0.451661 0.0309803 0
12942 1 0.45681 0.0279534 0
16257 2 0.46254 0.0257982 0
12788 1 0.467725 0.0285779 0
16736 2 0.473696 0.0295773 0
12182 1 0.479451 0.0282715 0
16563 2 0.48428 0.024745 0
12607 1 0.490368 0.0243528 0
17230 2 0.4886 0.0305374 0
14304 2 0.495553 0.0281565 0
1024 1 0.00336076 0.0346477 0
4299 2 0.000362243 0.0397542 0
5400 2 0.0149356 0.0342622 0
4456 2 0.00821647 0.0388012 0
5519 2 0.0216358 0.0365494 0
656 1 0.0282462 0.0360644 0
5415 2 0.0340004 0.0338251 0
4624 2 0.041367 0.0358632 0
1016 1 0.0475138 0.0377531 0
3064 2 0.0534595 0.0358999 0
3092 2 0.0612054 0.0354704 0
3456 2 0.0683782 0.0375605 0
164 1 0.0716939 0.0327679 0
4928 2 0.075942 0.0393249 0
4664 2 0.0834698 0.0371139 0
4111 2 0.0903762 0.0338008 0
5040 2 0.0967425 0.0374475 0
5079 2 0.103612 0.0334364 0
648 1 0.110137 0.0365971 0
4364 2 0.115852 0.0345744 0
1012 1 0.119031 0.0398159 0
4232 2 0.12406 0.035144 0
3935 2 0.132301 0.0349884 0
352 1 0.127912 0.0396785 0
3464 2 0.139054 0.0338948 0
1708 1 0.136434 0.0393751 0
1247 1 0.145004 0.0355865 0
3568 2 0.149634 0.0399005 0
4748 2 0.152632 0.0330821 0
372 1 0.155283 0.0384565 0
1872 2 0.159873 0.0338673 0
1652 1 0.165856 0.0349235 0
3264 2 0.172505 0.0329388 0
4960 2 0.168917 0.0398244 0
1932 2 0.180013 0.0342983 0
1156 1 0.175602 0.0391307 0
5116 2 0.187874 0.0376845 0
5714 2 0.195161 0.0388558 0
5238 2 0.202567 0.036564 0
4378 2 0.210095 0.034745 0
1887 2 0.214881 0.0398671 0
2315 2 0.225527 0.0352034 0
4472 2 0.233778 0.0358719 0
3001 2 0.241697 0.0357346 0
14798 2 0.249006 0.0333903 0
11706 1 0.24768 0.0396706 0
13984 2 0.254556 0.0394677 0
15030 2 0.261653 0.0369312 0
16150 2 0.268924 0.0356654 0
12314 1 0.27378 0.0395039 0
14958 2 0.276508 0.0335506 0
11534 1 0.28267 0.0324588 0
13734 2 0.280492 0.0394613 0
16194 2 0.287376 0.0361957 0
13162 1 0.292431 0.0330253 0
16930 2 0.295229 0.0387217 0
15745 2 0.300456 0.0336476 0
17250 2 0.307274 0.0364606 0
11926 1 0.302048 0.0402759 0
12486 1 0.312854 0.0330406 0
16810 2 0.314333 0.0388152 0
13942 2 0.318927 0.0325471 0
13298 1 0.324147 0.0361851 0
15849 2 0.330003 0.0339861 0
12262 1 0.335898 0.0322906 0
14630 2 0.335992 0.0380081 0
14066 2 0.341919 0.0328349 0
12534 1 0.341772 0.0388302 0
16218 2 0.348866 0.0336202 0
16794 2 0.355321 0.0384131 0
12006 1 0.36094 0.0340677 0
13677 2 0.363014 0.039773 0
13586 2 0.367905 0.0342409 0
15770 2 0.375187 0.0371772 0
14206 2 0.382221 0.0347603 0
16666 2 0.389759 0.0340259 0
16064 2 0.397271 0.0343528 0
12410 1 0.400502 0.0397362 0
17186 2 0.405137 0.0357728 0
12134 1 0.410313 0.0387717 0
15658 2 0.415386 0.0350401 0
12473 1 0.42013 0.0396238 0
15022 2 0.423241 0.034088 0
11586 1 0.42663 0.0398949 0
17160 2 0.430935 0.0346193 0
14576 2 0.437142 0.038841 0
13034 1 0.442868 0.0384761 0
13356 2 0.444458 0.0322794 0
14938 2 0.449095 0.039258 0
11781 1 0.455053 0.0357441 0
17280 2 0.460239 0.0328548 0
11614 1 0.462085 0.0391052 0
13753 2 0.467898 0.0346731 0
13872 2 0.47487 0.0375659 0
15885 2 0.481268 0.0343042 0
13717 2 0.487676 0.03818 0
15275 2 0.494591 0.0360887 0
13173 1 0.499196 0.0394533 0
1087 1 0.00593762 0.0446288 0
2352 2 0.000683558 0.0472668 0
1096 1 0.0154434 0.0407969 0
3940 2 0.0120868 0.0458017 0
2320 2 0.0202142 0.0445424 0
3008 2 0.0281211 0.0418747 0
140 1 0.0318381 0.0466591 0
2952 2 0.0356769 0.0407891 0
2424 2 0.0379357 0.0482966 0
3951 2 0.0432847 0.0427133 0
3276 2 0.0507101 0.0435814 0
1355 1 0.0572072 0.0409314 0
3040 2 0.057611 0.0472296 0
3163 2 0.0637673 0.0435536 0
383 1 0.0708055 0.0433833 0
5316 2 0.0758937 0.0477602 0
652 1 0.0807391 0.0430259 0
5272 2 0.0850558 0.0470199 0
2820 2 0.0905385 0.0412284 0
1328 1 0.0919327 0.0483239 0
3712 2 0.097579 0.0449517 0
3744 2 0.104202 0.040807 0
1020 1 0.108538 0.0450654 0
4752 2 0.113298 0.0416131 0
1192 1 0.117754 0.0456598 0
2123 2 0.12354 0.0441184 0
2831 2 0.132016 0.043803 0
1628 1 0.137739 0.0452084 0
2324 2 0.142564 0.0414972 0
1687 1 0.147648 0.0452269 0
3403 2 0.155713 0.0450851 0
2852 2 0.162051 0.0410756 0
1136 1 0.161271 0.0474875 0
3972 2 0.166891 0.0471638 0
5712 2 0.174451 0.0454689 0
5032 2 0.181442 0.0416724 0
986 1 0.180564 0.0481513 0
700 1 0.18763 0.0438237 0
3686 2 0.192999 0.0461339 0
3944 2 0.200764 0.0442294 0
5438 2 0.207856 0.0424238 0
311 1 0.212856 0.0456146 0
4262 2 0.219292 0.0460879 0
1524 1 0.221779 0.0404206 0
5214 2 0.227415 0.0433965 0
4288 2 0.234724 0.0430679 0
14546 2 0.241932 0.0432415 0
16834 2 0.249423 0.0452462 0
16380 2 0.257428 0.0461939 0
11940 1 0.262609 0.0428913 0
16474 2 0.268354 0.0431752 0
15189 2 0.276011 0.0459503 0
12026 1 0.281837 0.0462796 0
17237 2 0.287921 0.0434074 0
13170 1 0.293634 0.0453432 0
14818 2 0.299557 0.0466095 0
16162 2 0.307072 0.0442739 0
11766 1 0.314209 0.0451942 0
14921 2 0.321321 0.0415574 0
12802 1 0.325277 0.0476747 0
15490 2 0.328904 0.0417984 0
12190 1 0.334563 0.0438498 0
14222 2 0.340402 0.0448337 0
17066 2 0.347709 0.0409244 0
12590 1 0.346762 0.0467511 0
11950 1 0.353379 0.0440223 0
16266 2 0.358794 0.0465123 0
11666 1 0.364748 0.0460338 0
16310 2 0.370115 0.0421146 0
14382 2 0.376944 0.0452494 0
12229 1 0.380928 0.041146 0
16654 2 0.387137 0.0411134 0
16506 2 0.383734 0.0476916 0
13578 2 0.394467 0.0410294 0
16102 2 0.391597 0.0481092 0
15694 2 0.399442 0.0464698 0
14370 2 0.406101 0.0438449 0
15524 2 0.414988 0.042955 0
16250 2 0.422965 0.0453168 0
12462 1 0.427625 0.0482251 0
14786 2 0.431529 0.0434877 0
12490 1 0.43758 0.0451126 0
15018 2 0.443747 0.044633 0
11804 1 0.449975 0.0451004 0
16974 2 0.457368 0.0424779 0
16984 2 0.462868 0.0477778 0
15716 2 0.468271 0.0419179 0
15072 2 0.474882 0.0455125 0
12307 1 0.469474 0.0482089 0
15436 2 0.481258 0.0418038 0
16307 2 0.487744 0.046129 0
15948 2 0.494782 0.0438244 0
4116 2 0.00673718 0.0517559 0
720 1 0.0126197 0.0517324 0
3472 2 0.0186862 0.0518937 0
2732 2 0.0264356 0.0491097 0
3528 2 0.0251732 0.0564106 0
2880 2 0.0324859 0.0534228 0
5172 2 0.0459105 0.0493459 0
5324 2 0.0406747 0.0556578 0
332 1 0.0520481 0.0507173 0
968 1 0.0625268 0.0515207 0
4292 2 0.0570197 0.0546004 0
3348 2 0.0684386 0.0495516 0
5516 2 0.0737462 0.0547712 0
5647 2 0.0811712 0.0550626 0
3200 2 0.0887918 0.0537968 0
3376 2 0.0972469 0.0525212 0
1539 1 0.102622 0.0555081 0
4588 2 0.104044 0.0494099 0
884 1 0.108707 0.053726 0
3480 2 0.112699 0.0493989 0
4507 2 0.120062 0.0517185 0
5136 2 0.127515 0.0506106 0
4596 2 0.134765 0.0513881 0
771 1 0.12995 0.0558974 0
1332 1 0.139853 0.0554546 0
5284 2 0.142473 0.0494723 0
784 1 0.145463 0.05474 0
5496 2 0.149959 0.05069 0
2040 2 0.157511 0.0529002 0
4580 2 0.16468 0.0544405 0
423 1 0.170719 0.0520668 0
2984 2 0.176543 0.0529776 0
880 1 0.182171 0.0544012 0
2292 2 0.186268 0.0495627 0
4224 2 0.187692 0.0563161 0
944 1 0.192711 0.0524991 0
4795 2 0.198741 0.0517475 0
4512 2 0.205789 0.0498192 0
120 1 0.209271 0.0553051 0
5279 2 0.213966 0.051468 0
5456 2 0.221486 0.0528872 0
1172 1 0.225619 0.0486695 0
918 1 0.227142 0.0558091 0
4102 2 0.231513 0.050237 0
12810 1 0.237145 0.0532398 0
1382 1 0.238409 0.0484938 0
5092 2 0.244125 0.0513036 0
15332 2 0.251996 0.0523823 0
12382 1 0.25788 0.052866 0
16338 2 0.264392 0.0498088 0
12210 1 0.268059 0.0544065 0
12022 1 0.270769 0.0492058 0
16698 2 0.274331 0.0542482 0
11886 1 0.279436 0.0513894 0
15046 2 0.285549 0.0517235 0
13550 2 0.293291 0.0519226 0
13142 1 0.299504 0.0527724 0
13106 1 0.304683 0.0500759 0
14982 2 0.311114 0.0509687 0
15854 2 0.316943 0.0557225 0
14422 2 0.319429 0.048507 0
14130 2 0.324622 0.0535654 0
12334 1 0.330965 0.0548879 0
17082 2 0.331105 0.048985 0
12218 1 0.337309 0.0505712 0
14174 2 0.336889 0.0564486 0
16690 2 0.343079 0.0518662 0
16882 2 0.351849 0.050207 0
12658 1 0.357396 0.052244 0
17266 2 0.363387 0.0533378 0
13594 2 0.36986 0.0493338 0
16998 2 0.376236 0.0534347 0
13118 1 0.382658 0.0531759 0
15590 2 0.388711 0.0557606 0
14114 2 0.396512 0.0534224 0
13358 2 0.404539 0.0522371 0
15570 2 0.411671 0.0495164 0
13052 1 0.416007 0.0548614 0
11810 1 0.417407 0.0485324 0
13822 2 0.42165 0.0526507 0
14416 2 0.429101 0.0540513 0
12764 1 0.433801 0.0499581 0
13710 2 0.440204 0.0513716 0
15415 2 0.447789 0.0514405 0
16755 2 0.454834 0.049339 0
12504 1 0.453177 0.0553079 0
16329 2 0.459414 0.0551244 0
14166 2 0.467031 0.0540202 0
14952 2 0.474097 0.0533596 0
16916 2 0.480947 0.049711 0
12923 1 0.480873 0.0560747 0
16550 2 0.487105 0.0548201 0
12127 1 0.492364 0.0506098 0
14941 2 0.495788 0.0551107 0
11528 1 0.497998 0.0494706 0
3736 2 0.00542779 0.0591229 0
2812 2 0.0130881 0.0575948 0
607 1 0.0109007 0.0633139 0
1104 1 0.0191026 0.0580208 0
1668 1 0.0234375 0.0621242 0
4700 2 0.0174395 0.0638751 0
3308 2 0.0299864 0.061825 0
536 1 0.034843 0.0589652 0
4592 2 0.0377151 0.0644701 0
1068 1 0.0432819 0.0614873 0
2636 2 0.0482814 0.0564753 0
408 1 0.0530148 0.0597839 0
1380 1 0.0604894 0.0595172 0
5683 2 0.0665697 0.0571736 0
532 1 0.0718813 0.0608101 0
4644 2 0.0780514 0.0620605 0
5468 2 0.085558 0.0608807 0
1400 1 0.0937687 0.0575481 0
5476 2 0.0921787 0.0643319 0
3932 2 0.0989349 0.0605045 0
1972 2 0.107326 0.0596202 0
304 1 0.103399 0.064451 0
2380 2 0.114733 0.0570651 0
816 1 0.113141 0.0629272 0
1264 1 0.118948 0.0618326 0
4176 2 0.124373 0.0579768 0
616 1 0.129582 0.0613745 0
5264 2 0.135185 0.0587482 0
1512 1 0.138151 0.0643433 0
2856 2 0.143217 0.0606613 0
4976 2 0.150894 0.0581488 0
4000 2 0.15796 0.0602634 0
168 1 0.164212 0.0612772 0
3020 2 0.17088 0.0585395 0
1800 1 0.177828 0.058686 0
4146 2 0.183216 0.062402 0
718 1 0.189794 0.0626153 0
3556 2 0.194514 0.0586495 0
1926 2 0.203234 0.0576155 0
1712 1 0.199343 0.0624132 0
4352 2 0.209501 0.0620619 0
3082 2 0.216215 0.0586464 0
3444 2 0.223539 0.0609641 0
4118 2 0.232953 0.0584061 0
70 1 0.236797 0.063861 0
1849 2 0.241118 0.0588335 0
12174 1 0.247359 0.0564615 0
17158 2 0.24753 0.0626873 0
15434 2 0.254481 0.0591805 0
14754 2 0.2625 0.0576498 0
12310 1 0.265723 0.0644119 0
15681 2 0.27021 0.0604808 0
14950 2 0.281172 0.0577806 0
15614 2 0.289148 0.0585816 0
12974 1 0.291672 0.0638947 0
15690 2 0.297259 0.0589184 0
17022 2 0.304534 0.0568447 0
12170 1 0.302558 0.0629696 0
15538 2 0.308583 0.0637799 0
12102 1 0.311318 0.0585747 0
16513 2 0.315795 0.0630809 0
12362 1 0.321831 0.0597776 0
16994 2 0.327909 0.0601388 0
12222 1 0.334001 0.0619761 0
15710 2 0.339549 0.0636655 0
13030 1 0.342822 0.0584996 0
14782 2 0.34931 0.0571645 0
12782 1 0.353288 0.0627 0
14794 2 0.357114 0.0584689 0
13074 1 0.363617 0.0597799 0
16070 2 0.369371 0.0575999 0
12705 1 0.3751 0.0597185 0
15978 2 0.381565 0.0593249 0
17126 2 0.387903 0.0628324 0
13762 2 0.394957 0.0609503 0
14914 2 0.402578 0.0594062 0
14978 2 0.410018 0.0577445 0
12046 1 0.412363 0.0635604 0
14554 2 0.418298 0.0603389 0
11988 1 0.424351 0.0588966 0
16030 2 0.430405 0.0615745 0
11570 1 0.435858 0.0641568 0
15266 2 0.436655 0.0577661 0
13061 1 0.443582 0.0567396 0
13542 2 0.442393 0.0629084 0
14690 2 0.4488 0.0594384 0
12248 1 0.456302 0.0604517 0
12374 1 0.463436 0.0597352 0
12913 1 0.469973 0.0592087 0
15308 2 0.476252 0.0604497 0
16220 2 0.483365 0.0616919 0
14668 2 0.491233 0.060835 0
12346 1 0.496766 0.0627151 0
5508 2 0.00473066 0.0662645 0
802 1 0.000926953 0.0716427 0
2288 2 0.0118568 0.0691896 0
596 1 0.0182569 0.0704462 0
5644 2 0.0248591 0.0681564 0
2608 2 0.0319591 0.0695482 0
2132 2 0.0392674 0.0719626 0
368 1 0.0437717 0.0676404 0
3084 2 0.0495933 0.0648881 0
570 1 0.0531912 0.0699011 0
4460 2 0.057234 0.0649042 0
5732 2 0.0609085 0.0713637 0
4652 2 0.0655113 0.0647896 0
328 1 0.0679366 0.0707754 0
2164 2 0.0726971 0.0670547 0
1044 1 0.0784708 0.0689301 0
2864 2 0.085313 0.0688336 0
4148 2 0.0922654 0.072059 0
2264 2 0.0985386 0.0681757 0
2664 2 0.108694 0.0674664 0
2260 2 0.117248 0.0684633 0
1640 1 0.112165 0.0724727 0
3544 2 0.12451 0.065802 0
2904 2 0.132145 0.0668971 0
5448 2 0.141673 0.0687017 0
4348 2 0.148752 0.0665269 0
558 1 0.154926 0.0664343 0
2964 2 0.160949 0.0677964 0
4876 2 0.168445 0.0661974 0
68 1 0.171178 0.0720455 0
5752 2 0.175756 0.0647865 0
764 1 0.18157 0.0686034 0
5070 2 0.187846 0.0683422 0
5394 2 0.195106 0.0665895 0
5060 2 0.204164 0.0667453 0
604 1 0.199518 0.0708816 0
244 1 0.210334 0.0682785 0
2052 2 0.215672 0.0665215 0
4670 2 0.223423 0.0687912 0
4570 2 0.229871 0.0651344 0
1107 1 0.229063 0.0716125 0
4422 2 0.235365 0.071106 0
3146 2 0.24156 0.0669519 0
1052 1 0.242437 0.0724077 0
4622 2 0.249071 0.0705863 0
12340 1 0.253809 0.0657664 0
13850 2 0.25975 0.0646401 0
15052 2 0.256448 0.0715114 0
14742 2 0.263923 0.0705858 0
15154 2 0.27083 0.0680219 0
14492 2 0.277472 0.0649148 0
12998 1 0.282025 0.0695651 0
16402 2 0.284867 0.0646058 0
14090 2 0.291102 0.069849 0
14681 2 0.297866 0.0666548 0
16682 2 0.304526 0.0705569 0
15486 2 0.312901 0.0703646 0
12470 1 0.318719 0.0706335 0
14126 2 0.323442 0.06585 0
13354 2 0.331041 0.0672811 0
11634 1 0.336877 0.0696709 0
16110 2 0.34292 0.0707673 0
14758 2 0.347032 0.0645516 0
14718 2 0.353769 0.0687494 0
14506 2 0.360765 0.0649898 0
14050 2 0.368711 0.0650842 0
12110 1 0.365096 0.069802 0
12694 1 0.371079 0.0705022 0
14626 2 0.376033 0.0659569 0
15086 2 0.379822 0.0724441 0
11794 1 0.382319 0.0655388 0
17214 2 0.386645 0.0704538 0
12398 1 0.392167 0.0674289 0
15998 2 0.398784 0.0671483 0
15900 2 0.40674 0.065502 0
15302 2 0.412126 0.0708455 0
11890 1 0.40632 0.0717596 0
12208 1 0.417381 0.0667156 0
14398 2 0.419814 0.0717126 0
14490 2 0.424179 0.06498 0
13274 1 0.425963 0.0725293 0
15792 2 0.43113 0.0692823 0
13405 2 0.438402 0.0703219 0
13272 1 0.446542 0.0685387 0
12826 1 0.451542 0.0724242 0
13772 2 0.452538 0.0660824 0
17246 2 0.460028 0.0653922 0
16452 2 0.467948 0.0649314 0
14334 2 0.464834 0.0720203 0
12122 1 0.473678 0.0664272 0
15100 2 0.479941 0.0682404 0
13128 1 0.486109 0.067163 0
14992 2 0.493186 0.0679903 0
5292 2 0.00650925 0.0742393 0
4672 2 0.000182902 0.0782463 0
2876 2 0.0151903 0.076091 0
1084 1 0.00964238 0.0797346 0
2332 2 0.0229052 0.0752825 0
1336 1 0.019439 0.0801235 0
660 1 0.029085 0.0752296 0
3988 2 0.0345772 0.0776118 0
3604 2 0.0470271 0.0730878 0
4100 2 0.0421774 0.0790119 0
2032 2 0.0544246 0.075904 0
1180 1 0.0599525 0.0783318 0
2364 2 0.0661437 0.0769611 0
3284 2 0.0730213 0.0745757 0
3204 2 0.0806198 0.0746668 0
1204 1 0.0873029 0.0754007 0
2216 2 0.0923395 0.0791366 0
1464 1 0.0977559 0.0745864 0
3820 2 0.100409 0.0804606 0
5168 2 0.103843 0.0739476 0
2428 2 0.109773 0.0779643 0
2804 2 0.116889 0.0756847 0
1420 1 0.12198 0.0728327 0
3208 2 0.123017 0.0799504 0
4724 2 0.128068 0.0736715 0
2116 2 0.135767 0.0735379 0
1500 1 0.137542 0.0792626 0
5056 2 0.142581 0.0765221 0
52 1 0.147293 0.0727117 0
5560 2 0.149911 0.0790467 0
5020 2 0.154001 0.0726767 0
2304 2 0.157177 0.0792175 0
1287 1 0.159971 0.0733635 0
4868 2 0.165685 0.0744503 0
776 1 0.16392 0.0805068 0
5336 2 0.171825 0.0784035 0
5564 2 0.176821 0.0727967 0
5668 2 0.178978 0.080034 0
4776 2 0.184194 0.0746091 0
664 1 0.189413 0.0780236 0
2060 2 0.193919 0.0738572 0
270 1 0.199107 0.0766484 0
1880 2 0.205114 0.0738714 0
632 1 0.208873 0.0783668 0
5402 2 0.212949 0.0737397 0
330 1 0.219087 0.073505 0
5634 2 0.216703 0.0803335 0
3070 2 0.223866 0.0769861 0
5670 2 0.231346 0.0778359 0
2872 2 0.238534 0.0780052 0
4912 2 0.245635 0.0776081 0
3038 2 0.253131 0.0785111 0
1392 1 0.259047 0.0777478 0
14330 2 0.265458 0.0776028 0
12082 1 0.270296 0.0738599 0
15262 2 0.276751 0.0728389 0
16838 2 0.273061 0.0793853 0
12550 1 0.280367 0.0781349 0
14250 2 0.28522 0.0744255 0
11858 1 0.291505 0.0760996 0
14778 2 0.297486 0.0745654 0
12934 1 0.303409 0.0764335 0
16214 2 0.309289 0.0771857 0
16782 2 0.31692 0.0761681 0
15122 2 0.324617 0.0732104 0
11818 1 0.323459 0.0795919 0
15634 2 0.330064 0.0789786 0
12890 1 0.331687 0.0729824 0
13778 2 0.337523 0.0761444 0
15774 2 0.344808 0.0779554 0
11526 1 0.348789 0.0730205 0
14198 2 0.35318 0.0769888 0
14930 2 0.359726 0.0731086 0
12178 1 0.359011 0.0793687 0
17014 2 0.36675 0.0757369 0
14042 2 0.374239 0.0772685 0
12054 1 0.385399 0.0762064 0
15498 2 0.393391 0.0736013 0
11754 1 0.396279 0.0788251 0
14102 2 0.390526 0.080576 0
16876 2 0.400925 0.0746194 0
13882 2 0.407539 0.0782688 0
15870 2 0.415132 0.0776473 0
15102 2 0.422659 0.0784443 0
16906 2 0.430954 0.0766635 0
16188 2 0.438376 0.0781745 0
12812 1 0.443918 0.080553 0
16098 2 0.445148 0.0746762 0
16634 2 0.451235 0.0788494 0
12472 1 0.457188 0.0786761 0
15082 2 0.457517 0.0726929 0
14440 2 0.462888 0.0797701 0
13230 1 0.468483 0.0772877 0
15014 2 0.472593 0.0729867 0
11662 1 0.474312 0.0798051 0
15624 2 0.479568 0.0760274 0
16954 2 0.48743 0.0734992 0
11604 1 0.484581 0.0792811 0
12800 1 0.490938 0.0789968 0
16202 2 0.495606 0.0750961 0
11968 1 0.499973 0.0790881 0
4276 2 0.00541375 0.0845522 0
5440 2 0.0137024 0.0840086 0
2136 2 0.0207364 0.0859196 0
3636 2 0.0273568 0.0815215 0
136 1 0.0263132 0.0884271 0
248 1 0.0391602 0.0841845 0
2128 2 0.0333564 0.0855984 0
3483 2 0.0447031 0.0868958 0
3240 2 0.0493926 0.0814462 0
4896 2 0.0566154 0.0837783 0
92 1 0.0601662 0.0886498 0
4088 2 0.0639072 0.0839347 0
1440 1 0.0709949 0.0808399 0
2720 2 0.0711352 0.0867995 0
2068 2 0.0773202 0.0815472 0
3236 2 0.0848809 0.0807828 0
4632 2 0.0814417 0.0880385 0
4344 2 0.0893525 0.0870785 0
112 1 0.0955803 0.0841869 0
5504 2 0.10152 0.0878915 0
340 1 0.106041 0.0830411 0
5164 2 0.109696 0.0876761 0
2612 2 0.115175 0.0825624 0
180 1 0.126567 0.0857971 0
5276 2 0.120845 0.0874751 0
3172 2 0.130884 0.0809964 0
5480 2 0.13878 0.0853236 0
64 1 0.144215 0.0823746 0
2860 2 0.145585 0.0882705 0
5100 2 0.152898 0.0861786 0
4140 2 0.160494 0.0861674 0
2192 2 0.168405 0.0849803 0
488 1 0.175022 0.0840887 0
5332 2 0.179933 0.0877832 0
5380 2 0.185579 0.0825612 0
695 1 0.190536 0.0859836 0
4732 2 0.194936 0.0812266 0
3740 2 0.203397 0.0811568 0
1308 1 0.199248 0.0859427 0
4920 2 0.210613 0.0846318 0
982 1 0.216375 0.0867584 0
4284 2 0.22308 0.085146 0
972 1 0.22881 0.0830754 0
2408 2 0.234976 0.0848443 0
476 1 0.242116 0.0828742 0
17058 2 0.247931 0.0845871 0
922 1 0.253591 0.0848951 0
15378 2 0.259727 0.0836282 0
17030 2 0.26734 0.0846093 0
12278 1 0.272367 0.0876896 0
15254 2 0.278209 0.0847616 0
16558 2 0.284873 0.0820957 0
14394 2 0.292538 0.0818063 0
16354 2 0.300044 0.0815711 0
15326 2 0.296483 0.0879074 0
13494 2 0.307403 0.0847211 0
11694 1 0.30231 0.0883731 0
11538 1 0.313428 0.0820629 0
15678 2 0.319268 0.0834933 0
15518 2 0.326753 0.0857831 0
14154 2 0.335571 0.0853879 0
11854 1 0.340143 0.0814372 0
14826 2 0.344404 0.0852108 0
13018 1 0.350548 0.0819085 0
14266 2 0.356321 0.0843611 0
12738 1 0.350499 0.0881709 0
16034 2 0.363752 0.0831626 0
12510 1 0.361106 0.0884561 0
11822 1 0.369286 0.0816541 0
14834 2 0.374733 0.0851654 0
11806 1 0.380227 0.0869696 0
15066 2 0.381623 0.0812954 0
12522 1 0.386286 0.0846993 0
12454 1 0.391424 0.0869234 0
16866 2 0.397788 0.0850339 0
12254 1 0.401995 0.080662 0
13570 2 0.405594 0.0860073 0
12584 1 0.411825 0.0827812 0
14962 2 0.418681 0.0851928 0
12440 1 0.427683 0.0818649 0
17242 2 0.425997 0.0876 0
14512 2 0.433118 0.0848273 0
14843 2 0.440984 0.085438 0
15616 2 0.448538 0.0861701 0
14812 2 0.455733 0.0849054 0
15138 2 0.463233 0.0870808 0
14452 2 0.469724 0.0834289 0
15120 2 0.479193 0.0835787 0
13856 2 0.486707 0.0849908 0
16156 2 0.494597 0.0838251 0
3808 2 0.00210401 0.0916675 0
1506 1 0.00687177 0.0965175 0
3000 2 0.00936565 0.0906979 0
792 1 0.016066 0.0899682 0
2572 2 0.02174 0.0932666 0
4080 2 0.0307574 0.0922839 0
3128 2 0.0386309 0.0916794 0
4844 2 0.0462275 0.0947411 0
3104 2 0.0521541 0.0895948 0
1484 1 0.0522612 0.0961195 0
3224 2 0.0584766 0.0944607 0
2988 2 0.0652506 0.0921535 0
1703 1 0.0758274 0.0904159 0
3120 2 0.072186 0.094984 0